1
Lattice="20.0 0.0 0.0 0.0 20.0 0.0 0.0 0.0 20.0" Properties=species:S:1:pos:R:3:initial_magmoms:R:1:REF_forces:R:3 REF_energy=-1.122560977935791 pbc="F F F"
H        9.93030291      10.00012010       9.77100937       1.00000000       0.00000000       0.00000000       0.00000000
1
Lattice="20.0 0.0 0.0 0.0 20.0 0.0 0.0 0.0 20.0" Properties=species:S:1:pos:R:3:initial_magmoms:R:1:REF_forces:R:3 REF_energy=-1.122560977935791 pbc="F F F"
H       10.12152423      10.63492399      10.62863305       1.00000000       0.00000000       0.00000000       0.00000000
1
Lattice="20.0 0.0 0.0 0.0 20.0 0.0 0.0 0.0 20.0" Properties=species:S:1:pos:R:3:initial_magmoms:R:1:REF_forces:R:3 REF_energy=-1.122560977935791 pbc="F F F"
H       11.09164952      11.65856205      11.58421014       1.00000000       0.00000000       0.00000000       0.00000000
1
Lattice="20.0 0.0 0.0 0.0 20.0 0.0 0.0 0.0 20.0" Properties=species:S:1:pos:R:3:initial_magmoms:R:1:REF_forces:R:3 REF_energy=-1.122560977935791 pbc="F F F"
H        9.48188516      10.04788747       9.87695300       1.00000000       0.00000000       0.00000000       0.00000000
1
Lattice="20.0 0.0 0.0 0.0 20.0 0.0 0.0 0.0 20.0" Properties=species:S:1:pos:R:3:initial_magmoms:R:1:REF_forces:R:3 REF_energy=-1.122560977935791 pbc="F F F"
H       10.80629750      10.36903043      10.17550305       1.00000000       0.00000000       0.00000000       0.00000000
1
Lattice="20.0 0.0 0.0 0.0 20.0 0.0 0.0 0.0 20.0" Properties=species:S:1:pos:R:3:initial_magmoms:R:1:REF_forces:R:3 REF_energy=-1.122560977935791 pbc="F F F"
H       10.57901781       9.59799000      10.40868357       1.00000000       0.00000000       0.00000000       0.00000000
1
Lattice="20.0 0.0 0.0 0.0 20.0 0.0 0.0 0.0 20.0" Properties=species:S:1:pos:R:3:initial_magmoms:R:1:REF_forces:R:3 REF_energy=-1.122560977935791 pbc="F F F"
H       10.23240390      10.13400610      10.17189890       1.00000000       0.00000000       0.00000000       0.00000000
1
Lattice="20.0 0.0 0.0 0.0 20.0 0.0 0.0 0.0 20.0" Properties=species:S:1:pos:R:3:initial_magmoms:R:1:REF_forces:R:3 REF_energy=-1.122560977935791 pbc="F F F"
H        9.28524836       9.66276649       9.44723997       1.00000000       0.00000000       0.00000000       0.00000000
1
Lattice="20.0 0.0 0.0 0.0 20.0 0.0 0.0 0.0 20.0" Properties=species:S:1:pos:R:3:initial_magmoms:R:1:REF_forces:R:3 REF_energy=-1.122560977935791 pbc="F F F"
H       10.90371943      10.25111006      10.94392365       1.00000000       0.00000000       0.00000000       0.00000000
1
Lattice="20.0 0.0 0.0 0.0 20.0 0.0 0.0 0.0 20.0" Properties=species:S:1:pos:R:3:initial_magmoms:R:1:REF_forces:R:3 REF_energy=-1.122560977935791 pbc="F F F"
H       10.90353523      10.62119677      11.08509464       1.00000000       0.00000000       0.00000000       0.00000000
2
Lattice="20.0 0.0 0.0 0.0 20.0 0.0 0.0 0.0 20.0" Properties=species:S:1:pos:R:3:REF_forces:R:3 REF_energy=-6.842156410217285 pbc="F F F"
H       10.33696823      10.45674935      10.38538669      -0.60797793       0.33414546      -0.38832039
H       10.88390363      10.15615303      10.73471815       0.60797793      -0.33414546       0.38832039
2
Lattice="20.0 0.0 0.0 0.0 20.0 0.0 0.0 0.0 20.0" Properties=species:S:1:pos:R:3:REF_forces:R:3 REF_energy=-6.791653156280518 pbc="F F F"
H        9.50982823       9.82667052       9.59928356      -0.92466176       0.71195370      -2.47993326
H        9.74112596       9.64858010      10.21962074       0.92466176      -0.71195370       2.47993326
2
Lattice="20.0 0.0 0.0 0.0 20.0 0.0 0.0 0.0 20.0" Properties=species:S:1:pos:R:3:REF_forces:R:3 REF_energy=-6.8452839851379395 pbc="F F F"
H       10.10575539      10.76473303       9.79832287       0.11069086       0.13679522       0.44246709
H       10.27922665      10.97911336      10.49174019      -0.11069086      -0.13679522      -0.44246709
2
Lattice="20.0 0.0 0.0 0.0 20.0 0.0 0.0 0.0 20.0" Properties=species:S:1:pos:R:3:REF_forces:R:3 REF_energy=-6.806156158447266 pbc="F F F"
H       10.41309318      10.44945339       9.90933601       0.56404024       2.23305702      -0.06567899
H       10.24385574       9.77943299       9.92904248      -0.56404024      -2.23305702       0.06567899
2
Lattice="20.0 0.0 0.0 0.0 20.0 0.0 0.0 0.0 20.0" Properties=species:S:1:pos:R:3:REF_forces:R:3 REF_energy=-6.821903705596924 pbc="F F F"
H       10.93903281      10.65856503      10.56424095      -0.46103460       0.34896800       0.96554780
H       10.62181364      10.89867537      11.22859511       0.46103460      -0.34896800      -0.96554780
2
Lattice="20.0 0.0 0.0 0.0 20.0 0.0 0.0 0.0 20.0" Properties=species:S:1:pos:R:3:REF_forces:R:3 REF_energy=-6.831478595733643 pbc="F F F"
H       11.44988770      10.96317836      10.95986169      -0.32260168      -0.73338914       0.51397163
H       11.19056581      10.37364841      11.37301477       0.32260168       0.73338914      -0.51397163
2
Lattice="20.0 0.0 0.0 0.0 20.0 0.0 0.0 0.0 20.0" Properties=species:S:1:pos:R:3:REF_forces:R:3 REF_energy=-6.827495574951172 pbc="F F F"
H       11.33519510      11.64665155      11.34605948      -0.14358620      -1.01960075      -0.05968127
H       11.22811204      10.88625581      11.30155124       0.14358620       1.01960075       0.05968127
2
Lattice="20.0 0.0 0.0 0.0 20.0 0.0 0.0 0.0 20.0" Properties=species:S:1:pos:R:3:REF_forces:R:3 REF_energy=-6.828257083892822 pbc="F F F"
H       10.87233731      11.26973355      11.52290111      -0.96280438      -0.14996962      -0.29166988
H       10.14493708      11.15643126      11.30254444       0.96280438       0.14996962       0.29166988
2
Lattice="20.0 0.0 0.0 0.0 20.0 0.0 0.0 0.0 20.0" Properties=species:S:1:pos:R:3:REF_forces:R:3 REF_energy=-6.832192897796631 pbc="F F F"
H       11.41637853      11.46180524      10.63634931      -0.63998121      -0.65698707       0.18776415
H       10.89382670      10.92536711      10.78966171       0.63998121       0.65698707      -0.18776415
2
Lattice="20.0 0.0 0.0 0.0 20.0 0.0 0.0 0.0 20.0" Properties=species:S:1:pos:R:3:REF_forces:R:3 REF_energy=-6.843957901000977 pbc="F F F"
H        9.54831600       9.95010753      10.05102255      -0.58545035       0.31937888       0.01798839
H       10.17811404       9.60653577      10.03167142       0.58545035      -0.31937888      -0.01798839
1
Lattice="20.0 0.0 0.0 0.0 20.0 0.0 0.0 0.0 20.0" Properties=species:S:1:pos:R:3:initial_magmoms:R:1:REF_forces:R:3 REF_energy=-4.427225589752197 pbc="F F F"
N       10.20854346      10.41496666      10.07399367       3.00000000       0.00000000       0.00000000       0.00000000
1
Lattice="20.0 0.0 0.0 0.0 20.0 0.0 0.0 0.0 20.0" Properties=species:S:1:pos:R:3:initial_magmoms:R:1:REF_forces:R:3 REF_energy=-4.427225589752197 pbc="F F F"
N       10.91424849      10.37622921      10.38020253       3.00000000       0.00000000       0.00000000       0.00000000
1
Lattice="20.0 0.0 0.0 0.0 20.0 0.0 0.0 0.0 20.0" Properties=species:S:1:pos:R:3:initial_magmoms:R:1:REF_forces:R:3 REF_energy=-4.427225589752197 pbc="F F F"
N       10.31085273      10.60461541      10.17250865       3.00000000       0.00000000       0.00000000       0.00000000
1
Lattice="20.0 0.0 0.0 0.0 20.0 0.0 0.0 0.0 20.0" Properties=species:S:1:pos:R:3:initial_magmoms:R:1:REF_forces:R:3 REF_energy=-4.427225589752197 pbc="F F F"
N        9.57084482       9.80704303       9.13767203       3.00000000       0.00000000       0.00000000       0.00000000
1
Lattice="20.0 0.0 0.0 0.0 20.0 0.0 0.0 0.0 20.0" Properties=species:S:1:pos:R:3:initial_magmoms:R:1:REF_forces:R:3 REF_energy=-4.427225589752197 pbc="F F F"
N       11.00662849      10.70944522      10.93834637       3.00000000       0.00000000       0.00000000       0.00000000
1
Lattice="20.0 0.0 0.0 0.0 20.0 0.0 0.0 0.0 20.0" Properties=species:S:1:pos:R:3:initial_magmoms:R:1:REF_forces:R:3 REF_energy=-4.427225589752197 pbc="F F F"
N       10.18988423      10.18760597      10.31638398       3.00000000       0.00000000       0.00000000       0.00000000
1
Lattice="20.0 0.0 0.0 0.0 20.0 0.0 0.0 0.0 20.0" Properties=species:S:1:pos:R:3:initial_magmoms:R:1:REF_forces:R:3 REF_energy=-4.427225589752197 pbc="F F F"
N       10.24356747      10.08120047       9.70508770       3.00000000       0.00000000       0.00000000       0.00000000
1
Lattice="20.0 0.0 0.0 0.0 20.0 0.0 0.0 0.0 20.0" Properties=species:S:1:pos:R:3:initial_magmoms:R:1:REF_forces:R:3 REF_energy=-4.427225589752197 pbc="F F F"
N       11.01409660      11.46337462      11.65536769       3.00000000       0.00000000       0.00000000       0.00000000
1
Lattice="20.0 0.0 0.0 0.0 20.0 0.0 0.0 0.0 20.0" Properties=species:S:1:pos:R:3:initial_magmoms:R:1:REF_forces:R:3 REF_energy=-4.427225589752197 pbc="F F F"
N       10.83951357      10.73870290      11.36847256       3.00000000       0.00000000       0.00000000       0.00000000
1
Lattice="20.0 0.0 0.0 0.0 20.0 0.0 0.0 0.0 20.0" Properties=species:S:1:pos:R:3:initial_magmoms:R:1:REF_forces:R:3 REF_energy=-4.427225589752197 pbc="F F F"
N       10.77769001      11.44246447      10.86208767       3.00000000       0.00000000       0.00000000       0.00000000
2
Lattice="20.0 0.0 0.0 0.0 20.0 0.0 0.0 0.0 20.0" Properties=species:S:1:pos:R:3:REF_forces:R:3 REF_energy=-17.76076316833496 pbc="F F F"
N       11.11698044      10.65416335      11.56106615      -4.76384974       4.53186178      -4.61924553
N       10.42186081      11.31543281      10.88704583       4.76384974      -4.53186178       4.61924553
2
Lattice="20.0 0.0 0.0 0.0 20.0 0.0 0.0 0.0 20.0" Properties=species:S:1:pos:R:3:REF_forces:R:3 REF_energy=-17.503498077392578 pbc="F F F"
N       10.82012258      10.79174057      11.45929695       2.50296426      -1.23493433     -10.34820747
N       11.10032700      10.65349085      10.30082838      -2.50296426       1.23493433      10.34820747
2
Lattice="20.0 0.0 0.0 0.0 20.0 0.0 0.0 0.0 20.0" Properties=species:S:1:pos:R:3:REF_forces:R:3 REF_energy=-18.030498504638672 pbc="F F F"
N        9.82615327      10.27745271      10.17100467       0.31743348       0.43710816       0.16342258
N       10.45227959      11.13963374      10.49335042      -0.31743348      -0.43710816      -0.16342258
2
Lattice="20.0 0.0 0.0 0.0 20.0 0.0 0.0 0.0 20.0" Properties=species:S:1:pos:R:3:REF_forces:R:3 REF_energy=-17.64813232421875 pbc="F F F"
N       10.41905842       9.26906384       9.63697272       4.57016611      -8.75269318       8.22596836
N       10.04731258       9.98102470       8.96785686      -4.57016611       8.75269318      -8.22596836
2
Lattice="20.0 0.0 0.0 0.0 20.0 0.0 0.0 0.0 20.0" Properties=species:S:1:pos:R:3:REF_forces:R:3 REF_energy=-17.967336654663086 pbc="F F F"
N       10.68197104      10.74177975      10.31334593       2.43957901       3.64838958      -2.00678778
N       10.13492667       9.92367584      10.76334172      -2.43957901      -3.64838958       2.00678778
2
Lattice="20.0 0.0 0.0 0.0 20.0 0.0 0.0 0.0 20.0" Properties=species:S:1:pos:R:3:REF_forces:R:3 REF_energy=-17.74390411376953 pbc="F F F"
N       11.34025833      10.66598940      10.31781138      -6.57117367      -3.00197983       3.98391080
N       10.40470937      10.23859200      10.88500664       6.57117367       3.00197983      -3.98391080
2
Lattice="20.0 0.0 0.0 0.0 20.0 0.0 0.0 0.0 20.0" Properties=species:S:1:pos:R:3:REF_forces:R:3 REF_energy=-17.32524299621582 pbc="F F F"
N        9.35087625       8.66338303       9.41608499      -2.29445815     -18.15770149       0.14957932
N        9.47931638       9.67982862       9.40771244       2.29445815      18.15770149      -0.14957932
2
Lattice="20.0 0.0 0.0 0.0 20.0 0.0 0.0 0.0 20.0" Properties=species:S:1:pos:R:3:REF_forces:R:3 REF_energy=-18.024690628051758 pbc="F F F"
N        9.59483433       9.94094014      11.06523539      -0.84764928      -0.16080797       1.23477137
N       10.21409536      10.05842000      10.16315789       0.84764928       0.16080797      -1.23477137
2
Lattice="20.0 0.0 0.0 0.0 20.0 0.0 0.0 0.0 20.0" Properties=species:S:1:pos:R:3:REF_forces:R:3 REF_energy=-17.20583724975586 pbc="F F F"
N        9.49017040      10.31040793       9.44060617      -3.75700235      17.26183701      -9.53980350
N        9.68072954       9.43486782       9.92447606       3.75700235     -17.26183701       9.53980350
2
Lattice="20.0 0.0 0.0 0.0 20.0 0.0 0.0 0.0 20.0" Properties=species:S:1:pos:R:3:REF_forces:R:3 REF_energy=-17.602209091186523 pbc="F F F"
N       11.11333786      11.98800953      11.15064046       5.66835260      -7.57486916       2.59753394
N       11.80101047      11.06904174      11.46576788      -5.66835260       7.57486916      -2.59753394
4
Lattice="20.0 0.0 0.0 0.0 20.0 0.0 0.0 0.0 20.0" Properties=species:S:1:pos:R:3:REF_forces:R:3 REF_energy=-19.8630428314209 pbc="F F F"
N       10.00156915       9.52834401       9.89770617      -1.05929375       0.44912812       0.55241793
H       10.34238943       8.72884177      10.34061556       0.40482718      -1.24230850       0.80339807
H        9.86025167       9.28536143       8.96361862      -0.38327098      -0.33260685      -1.44744980
H       10.72957718      10.17755819       9.90518715       1.03773761       1.12578714       0.09163379
4
Lattice="20.0 0.0 0.0 0.0 20.0 0.0 0.0 0.0 20.0" Properties=species:S:1:pos:R:3:REF_forces:R:3 REF_energy=-19.609033584594727 pbc="F F F"
N        9.59042097       9.30418325       9.71356335       2.45325470      -1.66267943      -2.29774213
H        9.10807840       9.99321970       9.28757715      -1.83149755       2.72876143      -1.89001286
H        8.94908255       8.70182951      10.05230298      -2.48460412      -2.57570958       1.25115049
H       10.00748002       9.69641443      10.46263343       1.86284697       1.50962758       2.93660450
4
Lattice="20.0 0.0 0.0 0.0 20.0 0.0 0.0 0.0 20.0" Properties=species:S:1:pos:R:3:REF_forces:R:3 REF_energy=-19.871091842651367 pbc="F F F"
N       10.38930867      10.29121360      10.57865108      -0.82311219       0.19365373       1.01184845
H       10.88379483      10.32601424      11.49094416      -0.53464580      -0.03900396      -1.00025463
H        9.86373350      11.18291911      10.49717736       0.57757765      -0.97334564       0.08329175
H        9.67792438       9.53939901      10.66058493       0.78018034       0.81869584      -0.09488549
4
Lattice="20.0 0.0 0.0 0.0 20.0 0.0 0.0 0.0 20.0" Properties=species:S:1:pos:R:3:REF_forces:R:3 REF_energy=-19.92812728881836 pbc="F F F"
N       10.22361162       9.67670925      10.28188329       0.09989977       0.11209458       0.03226306
H       11.04227458       9.33667256      10.74907633       0.09396658      -0.17569903       0.07564922
H       10.54487565      10.15136592       9.45993836      -0.01716547       0.00628784      -0.21230698
H        9.83058285      10.37984921      10.87789132      -0.17670088       0.05731660       0.10439470
4
Lattice="20.0 0.0 0.0 0.0 20.0 0.0 0.0 0.0 20.0" Properties=species:S:1:pos:R:3:REF_forces:R:3 REF_energy=-19.85369300842285 pbc="F F F"
N       11.25118326      10.62022052      10.89467771      -0.03452546      -1.02568090      -0.97599930
H       11.76787661       9.76578478      11.19632906      -0.63445079       1.03637743      -0.38168573
H       10.27914907      10.31270940      10.67419622       1.19241118       0.36524373       0.25903618
H       11.67740190      10.91670592       9.98999006      -0.52343494      -0.37594020       1.09864879
4
Lattice="20.0 0.0 0.0 0.0 20.0 0.0 0.0 0.0 20.0" Properties=species:S:1:pos:R:3:REF_forces:R:3 REF_energy=-19.92786979675293 pbc="F F F"
N       10.06341218      10.11298730      10.30582288      -0.37286413       0.28474337       0.18774951
H        9.93746139      10.97301086       9.79027066       0.10191610      -0.18545902       0.03025773
H        9.17091323       9.63916096      10.29058836       0.20990324       0.00248260      -0.04023878
H       10.22755193      10.37912439      11.26682603       0.06104478      -0.10176694      -0.17776845
4
Lattice="20.0 0.0 0.0 0.0 20.0 0.0 0.0 0.0 20.0" Properties=species:S:1:pos:R:3:REF_forces:R:3 REF_energy=-19.910837173461914 pbc="F F F"
N       10.77098332       9.74243824      10.83721010       0.35470968      -0.24878323       0.14370419
H        9.91075404       9.42312983      11.20760699      -0.58981675      -0.35427117       0.35939941
H       10.84841369      10.69476844      11.09453779       0.19063108       0.70416421       0.26528046
H       10.67282234       9.72727799       9.85268970       0.04447600      -0.10110980      -0.76838404
4
Lattice="20.0 0.0 0.0 0.0 20.0 0.0 0.0 0.0 20.0" Properties=species:S:1:pos:R:3:REF_forces:R:3 REF_energy=-19.919776916503906 pbc="F F F"
N       10.11206489      10.02615884      10.62615597       0.22985603      -0.34927064       0.66668457
H        9.32617497       9.76024528      11.21699401       0.32463145       0.15803616      -0.33880988
H       10.64347457       9.17411935      10.45570158      -0.26298919       0.41949013       0.00079615
H       10.70743889      10.62626179      11.19433593      -0.29149827      -0.22825563      -0.32867086
4
Lattice="20.0 0.0 0.0 0.0 20.0 0.0 0.0 0.0 20.0" Properties=species:S:1:pos:R:3:REF_forces:R:3 REF_energy=-19.296611785888672 pbc="F F F"
N        9.44483956       9.77350460       9.30046021       4.67644167      -3.42857599       0.92246342
H        8.65582343       9.29872469       9.29735081      -4.80920410      -3.20083165       0.02550222
H        9.35305938      10.42412023       9.94563268      -0.35620463       3.98658705       4.16576242
H        9.48539684      10.21371011       8.49265699       0.48896718       2.64282084      -5.11372805
4
Lattice="20.0 0.0 0.0 0.0 20.0 0.0 0.0 0.0 20.0" Properties=species:S:1:pos:R:3:REF_forces:R:3 REF_energy=-19.608795166015625 pbc="F F F"
N       10.18735577       9.18875492       9.72668027       3.00140738      -2.24950528       0.08812378
H        9.37700934       8.71025254       9.78346271      -3.14694500      -2.10365677       0.23872203
H       10.18025450       9.80761213      10.43788710       0.15396698       2.40589714       2.92803478
H       10.14073747       9.69599468       8.93334277      -0.00842950       1.94726491      -3.25488043
15
Lattice="20.0 0.0 0.0 0.0 20.0 0.0 0.0 0.0 20.0" Properties=species:S:1:pos:R:3:REF_forces:R:3 REF_energy=-299.50042724609375 pbc="F F F"
Pd       8.40633400      10.93686788       8.38414637      -1.43797421      -0.26968175      -0.60010237
Ag       9.20636444       8.07890606      11.78594528       0.26819149      -0.20263577       0.12660801
Ag      10.13599646      11.49599254      11.37545970      -0.43299794       0.61142439      -0.27288604
Ag      12.58052246      10.46992466      10.29537438       0.09803156      -0.13593881      -0.49182674
Ni      11.52046932       7.40164414      12.49699801      -0.05950171       0.06929787      -0.17180108
Ni      11.82963110       8.50398244       8.50967868       0.19588487       0.37430122      -0.15691485
Ni       7.71371321       8.89057102       9.73603003      -0.26523283      -0.66528326      -0.83334988
Cu       8.24798300       8.53728454       7.42601030       0.06160082       0.67583793       0.38020796
Ni      10.03147527      12.45294088       8.86740793       1.36564767      -0.21795741       0.23734631
Ag      12.58271974      12.64647654      11.83439077      -0.21890730      -0.19373733       0.13653427
Ag       7.61876744      10.25099512      11.72735271       0.10175834       0.62553567       0.30907500
Pt      11.64153508      10.88117907       7.82077374      -0.87644625      -0.24825595       0.63628048
Ag       9.64622586       7.02536781       8.72489914       0.07028083      -0.82068485       0.23277371
Pt       9.97747243       9.42939087       9.60705823       1.23680854       0.79203588       0.32951465
Cu      11.45184706       9.67019030      12.31764154      -0.10714392      -0.39425784       0.13854052
15
Lattice="20.0 0.0 0.0 0.0 20.0 0.0 0.0 0.0 20.0" Properties=species:S:1:pos:R:3:tags:I:1:REF_forces:R:3 REF_energy=-300.466064453125 pbc="F F F"
Pd       8.50407898      11.68607289       9.25227875        0       0.10877085      -0.24461581       0.06104852
Ag      12.36588510      10.49238244      10.65329402        1      -0.22646604       0.17474639      -0.08953875
Ag      10.97815233      11.13208115       8.33994636        2       0.10858955       0.19617325      -0.46821329
Ag      11.37246738      12.00609349      12.69648038        3      -0.03803850      -0.02866279      -0.06676918
Ni      12.76074294       7.87937842      10.77769446        4       0.13755976      -0.02086692       0.51719117
Ni       8.26189092       8.34406588      10.95810658        5      -0.82326829      -0.48947668       0.00013891
Ni       7.79789525      10.50339418      11.22169944        6       0.02466409       0.61306125      -0.11813772
Cu      10.41724569       7.46315411      10.68192522        7       0.53466928       0.06062980       0.00252555
Ni       9.68614952       9.51965644       9.69931592        8      -0.01316815       0.10724025      -0.78019106
Ag      12.36957207       9.47727945      13.13210716        9      -0.09107397      -0.38712525      -0.00454185
Ag       9.70380824       8.55484048       7.15656559       10      -0.67041636       0.11439694       0.28403080
Pt       9.92941024       9.87558737      12.07603735       11       0.15468292       0.07912493       0.20698360
Ag       9.35633678       7.49057937      13.00602036       12       0.31085861      -0.35782042       0.40865272
Pt      11.78531884       8.56861166       8.80172642       13      -0.08797994      -0.07281040      -0.04907260
Cu       7.37009158       7.61909390       6.81348941       14       0.57061619       0.25600547       0.09589321
15
Lattice="20.0 0.0 0.0 0.0 20.0 0.0 0.0 0.0 20.0" Properties=species:S:1:pos:R:3:tags:I:1:REF_forces:R:3 REF_energy=-299.9603576660156 pbc="F F F"
Pd      11.71850641       7.71743859      11.56460928        0       0.19245565      -0.19861788      -0.18007217
Ag       7.70654709       7.46390384       7.77606070        1       0.08172234      -0.39149162       0.02791875
Ag       9.73666270      11.74732691      10.02480398        2       0.17442305      -0.07181267       0.22857200
Ag       8.30521573      12.19226836      12.36620562        3       0.18706247      -0.10777447       0.08248754
Ni      10.28312764       8.59505608       9.69356502        4       0.14024624      -0.36089140      -0.06484341
Ni       9.42434210      11.56934779       7.58603084        5      -0.31678802       0.96163571      -0.81627440
Ni       9.33687798       7.86465309      11.64886013        6      -0.15353221       0.12191515       0.24680823
Cu      10.87461561      12.23393798      12.20857616        7      -0.03923850      -0.42199159      -0.08437961
Ni      11.54398056      10.01195997      10.94522681        8      -0.03490068       0.74882162       0.12527241
Ag       7.69976397       9.77021504      11.19381349        9      -0.12021334       0.07193671      -0.61795121
Ag      12.37369164       7.27383534       7.70524360       10      -0.49656510       0.41549981       0.56080735
Pt       9.90499615       9.97842267      12.71592490       11       0.29930007      -0.22910434      -0.45185581
Ag      11.11015355       9.68691603       7.46496750       12       0.35648313      -0.61034775       0.06971143
Pt       8.54079562       9.70498423       8.52040170       13      -0.40558752      -0.06411209       0.66710871
Cu      11.58218432      12.11651642       7.33587376       14       0.13513243       0.13633479       0.20669019
15
Lattice="20.0 0.0 0.0 0.0 20.0 0.0 0.0 0.0 20.0" Properties=species:S:1:pos:R:3:tags:I:1:REF_forces:R:3 REF_energy=-298.15423583984375 pbc="F F F"
Pd      11.92679277       7.66840012      10.41040182        0      -0.36676571       0.38663247      -0.12900896
Ag       9.76692903       8.38897737       7.42048475        1      -0.06144419       0.21365665       0.56224620
Ag      11.92696302       9.79778248       8.36323005        2      -0.30032700       0.21837606      -0.02336998
Ag       9.47248328       7.63514766      12.43792517        3       0.30395582       0.15309344      -0.03821196
Ni      11.82457626       8.64561773      12.61571389        4      -0.04203660       0.28927290      -0.31841889
Ni      11.74553117      10.18359315      10.92635206        5      -0.06656723       0.27424678       0.05558034
Ni       7.64278753       8.31003913      10.83052319        6       0.20046313       0.32709640      -0.53929085
Cu       7.50245877       7.70516761       6.91004763        7       0.05960606       0.03816423       0.14836000
Ni      12.45651530      12.31572362       8.82613818        8      -0.09344883      -0.28587380       0.72585201
Ag       7.64477450      11.97044688      11.45368260        9       0.40996754      -0.40470383      -0.16070743
Ag       9.76273200      11.76187452       9.51332791       10       0.06946956      -0.00598901       0.00021939
Pt       9.71777498       9.13397690      10.10150387       11      -0.26685974      -0.49267158      -0.10496020
Ag       7.58410142       9.69073970      12.93848188       12       0.24359047       0.06201895      -0.22885530
Pt      10.97713495      12.41205196       7.12969233       13      -0.09186120      -0.57955492       0.22458522
Cu      11.71170524      12.53048454      11.05071005       14       0.00225795      -0.19376479      -0.17401955
15
Lattice="20.0 0.0 0.0 0.0 20.0 0.0 0.0 0.0 20.0" Properties=species:S:1:pos:R:3:REF_forces:R:3 REF_energy=-296.593505859375 pbc="F F F"
Pd      12.82077447       8.89979963       9.85537780       0.36608505      -0.82609761       0.45076233
Ag       8.96910273      10.28650941       9.53565667      -0.18991423      -0.29912257       0.29695708
Ag      12.60595393       7.42290151       7.71176674      -0.27243650       0.07757796       0.06847870
Ag      11.10019036       9.70560235       7.88031076      -0.02465812      -0.12923616      -0.34022772
Ni       9.00554426      11.80999997      11.71039256       0.02598605      -0.77693039       0.03103480
Ni      10.44227867       8.14007543       9.97248214      -0.30027026      -0.08546413       0.06288256
Ni      11.41757226      10.31109634      11.51407863      -1.02213562       0.40141484       0.00641172
Cu      12.31811187      11.15681256       9.51154607       0.09295735       0.95959610      -0.34332928
Ni      10.45583101      12.40014807      10.26043389      -0.11052046      -0.02737914      -0.81823570
Ag       6.90604372       8.69163954      13.15014862       0.37318429       0.28517628      -0.46506459
Ag       7.96762980       7.54656927       8.66692078       0.52348006       0.25205991       0.55640280
Pt       8.11017179      12.47453975       8.32683001       1.25802100      -0.63097060       1.00736558
Ag      12.92803702      12.35384882      11.61142872      -0.51792145      -0.06808460      -0.12488296
Pt      11.60071085       8.02009811      12.06244816      -0.17544210       0.28208515      -0.60916817
Cu       8.74479991       9.29908870       7.15790181      -0.02641512       0.58537501       0.22061281
15
Lattice="20.0 0.0 0.0 0.0 20.0 0.0 0.0 0.0 20.0" Properties=species:S:1:pos:R:3:tags:I:1:REF_forces:R:3 REF_energy=-298.63763427734375 pbc="F F F"
Pd      11.61934166      12.20005778      10.88809141        0       0.43082634       0.30856329       0.41978243
Ag      10.03685443      12.32623148       8.77530578        1      -0.75673950       0.62119466      -0.66614115
Ag      10.17726533       7.72149254       8.49099165        2       0.27026778       0.22051539      -0.39154845
Ag      10.01923892      10.12238736       7.09935772        3      -0.37584856       0.36138263      -0.15192834
Ni      11.59483850      10.41160303       9.19797148        4      -0.12378170      -0.52001685       0.52922708
Ni       8.99670291       8.58335921      10.44338412        5      -0.77523082      -0.22083822       0.97811174
Ni       7.30593530       7.09669625      12.63028424        6       0.50944400       0.44167539      -0.68216205
Cu      12.49117350       8.22376971       9.66191683        7      -0.09865076      -0.06856222       0.42249903
Ni      10.32305867      11.74547524      12.94934343        8       0.20773010      -0.44266725      -0.37898585
Ag       7.63483747       9.49276167       8.21024660        9       0.47614542      -0.15917030       0.55743414
Ag       7.28679064      12.15261220       8.12267658       10       0.54781866      -0.21656814       0.19505443
Pt      12.39240273       9.04607757       7.44800334       11       0.06941102      -0.08993149      -0.31019372
Ag      11.65463997       9.52101010      11.68299036       12      -0.27415764       0.04479490      -0.07157660
Pt       9.37722801      10.83203077      10.86305838       13      -0.09033721      -0.21266040      -0.07560083
Cu       8.53095952      12.80015406      12.03893708       14      -0.01689711      -0.06771143      -0.37397185
15
Lattice="20.0 0.0 0.0 0.0 20.0 0.0 0.0 0.0 20.0" Properties=species:S:1:pos:R:3:tags:I:1:REF_forces:R:3 REF_energy=-299.4881591796875 pbc="F F F"
Pd      12.27882573      12.09313861      10.75090683        0       0.02288979      -0.02092391      -0.10202472
Ag       7.94530281       9.71884280      11.13391626        1       0.06366408      -0.10678136      -0.20643397
Ag       9.20647020       7.46454572      11.80443844        2      -0.25934255      -0.28428367      -0.01556519
Ag       7.62846086       7.38889541       7.70721698        3       0.20229770       0.00133451       0.19964580
Ni      11.50404269       8.31872462      12.05024860        4       0.06530290       0.07946227      -0.22264914
Ni      10.59491942      12.02306978      12.46649922        5       0.35636398      -0.41680387      -0.02212249