11
Lattice="20.0 0.0 0.0 0.0 20.0 0.0 0.0 0.0 20.0" Properties=species:S:1:pos:R:3:forces:R:3 index=0 nearest_neighbor_distance=1.5628799672719595 nearest_neighbor_element=Pt adsorbate=H adsorbate_site=top cluster_size=10 energy=-324.613828 cluster_energy=-320.4773421 adsorbate_energy=-1.07452648 adsorption_energy=-3.061959420000025 pbc="T T T"
H        7.54931000      11.63296000      10.40569000      -0.00195200       0.00230100      -0.01264800
Pd      12.48554000       9.60482000      12.54978000       0.01117900      -0.00355500      -0.03083000
Pd      12.25646000       8.10204000      10.19413000      -0.00009400       0.00725800      -0.01042900
Pd      10.06787000       8.60520000      11.76829000       0.00217100      -0.01252000       0.00516700
Pd      11.56973000       9.65489000       7.84258000      -0.01708100       0.01186400       0.02754800
Pd       8.83538000      10.04476000       7.49053000      -0.02060500      -0.00684600       0.00766800
Pd      10.29658000      11.84950000       8.90499000       0.02421300       0.00327300      -0.01615400
Pt      10.40141000      11.13888000      11.80447000      -0.00176800      -0.00502900       0.01804300
Pt      12.26779000      10.65031000      10.14597000      -0.00942200       0.02566300       0.01083500
Pt       9.85156000       8.34328000       9.19847000      -0.02589200       0.00581500       0.01290300
Pt       8.54233000      10.45290000      10.15278000       0.03925000      -0.02822200      -0.01210300
12
Lattice="20.0 0.0 0.0 0.0 20.0 0.0 0.0 0.0 20.0" Properties=species:S:1:pos:R:3:forces:R:3 index=1 nearest_neighbor_distance=1.7202413619387835 nearest_neighbor_element=Pd adsorbate=H2 adsorbate_site=top cluster_size=10 energy=-327.87465815 cluster_energy=-320.47895124 adsorbate_energy=-6.80638155 adsorption_energy=-0.589325360000001 pbc="T T T"
H        7.94097000      10.81981000       6.64756000      -0.01010800       0.00451200       0.02828200
H        8.67356000      11.17281000       6.84250000      -0.03302100      -0.02634500       0.01289200
Pd       9.54246000       8.71012000      12.57953000       0.00839900      -0.01519800       0.00388800
Pd      11.96455000       9.64375000      13.35414000      -0.02327600      -0.00084600       0.01308600
Pd      11.74857000       8.07764000      11.02440000       0.00835800      -0.00411400       0.01223800
Pd      11.16199000       9.53124000       8.67154000       0.01754200      -0.00464000       0.00385400
Pd       8.44918000      10.02466000       8.15747000       0.01205400       0.03981800      -0.01130400
Pd       9.84966000      11.75244000       9.74552000       0.00680100       0.01544800      -0.01171300
Pt      11.86969000      10.61727000      10.94988000       0.01813800       0.00234900      -0.00275800
Pt       9.92101000      11.23127000      12.49004000      -0.00937100      -0.00034900      -0.03274900
Pt       9.31535000       8.37938000       9.99837000       0.00169500      -0.01179400      -0.01614400
Pt       8.02188000      10.38059000      10.90380000       0.00279000       0.00116100       0.00042900
11
Lattice="20.0 0.0 0.0 0.0 20.0 0.0 0.0 0.0 20.0" Properties=species:S:1:pos:R:3:forces:R:3 index=2 nearest_neighbor_distance=1.8557359546282455 nearest_neighbor_element=Pt adsorbate=N adsorbate_site=hollow cluster_size=10 energy=-329.11361949 cluster_energy=-320.30712669 adsorbate_energy=-3.08886365 adsorption_energy=-5.7176291500000005 pbc="T T T"
N        7.92714000       9.19036000       9.19733000       0.03060400       0.00204000      -0.00762700
Pd       9.94165000      11.09161000      12.54530000      -0.01047600      -0.00165500       0.01989100
Pd      12.18763000       9.57664000      12.37328000       0.00367700      -0.01661400       0.02168100
Pd       9.67512000       8.47166000      11.86449000       0.00255800      -0.00714400      -0.01651900
Pd      11.02874000       9.66370000       7.68416000      -0.00290500      -0.01966000      -0.03591900
Pd       9.19180000       7.73841000       9.06651000      -0.00640500       0.03672400       0.00050400
Pd       8.32942000       9.93075000       7.47065000      -0.01635000      -0.00454600       0.02815500
Pt      11.49100000      11.16051000      10.42240000      -0.00689900       0.01764600       0.01446100
Pt      11.53833000       8.61196000      10.02157000       0.00516000       0.02590100      -0.00127500
Pt       9.03081000      10.34486000      10.14221000      -0.00632700      -0.00551700      -0.01688200
Pt      10.11543000      11.99554000       8.41612000       0.00736400      -0.02717600      -0.00646800
12
Lattice="20.0 0.0 0.0 0.0 20.0 0.0 0.0 0.0 20.0" Properties=species:S:1:pos:R:3:forces:R:3 index=3 nearest_neighbor_distance=2.4536498357192307 nearest_neighbor_element=Pt adsorbate=N2 adsorbate_site=top cluster_size=10 energy=-339.40309109 cluster_energy=-320.70483722 adsorbate_energy=-17.72816119 adsorption_energy=-0.9700926799999721 pbc="T T T"
N       12.44816000       6.69783000       9.82487000      -0.00039300       0.00294400       0.01462200
N       12.21702000       7.79508000       9.97619000       0.00165500       0.02353800       0.01066100
Pd       9.82652000       9.54949000      12.05937000       0.00945000       0.00044900       0.00634900
Pd      11.99336000      11.16313000      12.47091000       0.00191800      -0.00125800      -0.00316900
Pd       7.49483000      12.06267000       9.94662000      -0.00656500      -0.00447700       0.00048800
Pd       9.83056000      13.23060000       8.89097000      -0.00423700       0.00277700       0.01246900
Pd      11.14537000      10.98181000       7.86577000      -0.00175500      -0.00055300      -0.00865400
Pd       8.44358000      11.44497000       7.49688000       0.00261600       0.00961300       0.00185100
Pt       9.76099000      12.07224000      11.32166000      -0.00434300      -0.01225000      -0.00491000
Pt      12.00357000      12.17679000      10.07532000      -0.00151900       0.00550600      -0.00363700
Pt       9.31053000      10.22994000       9.59779000      -0.00491600      -0.01522200      -0.01209300
Pt      11.90596000       9.64835000      10.16375000       0.00809000      -0.01106600      -0.01397500
14
Lattice="20.0 0.0 0.0 0.0 20.0 0.0 0.0 0.0 20.0" Properties=species:S:1:pos:R:3:forces:R:3 index=4 nearest_neighbor_distance=2.4005556635248544 nearest_neighbor_element=Pd adsorbate=NH3 adsorbate_site=top cluster_size=10 energy=-341.66830733 cluster_energy=-320.2865891 adsorbate_energy=-20.15535938 adsorption_energy=-1.2263588499999898 pbc="T T T"
H        7.31580000       7.63898000      11.78553000      -0.02166100      -0.01880100      -0.00830600
H        8.16138000       7.68399000      13.20262000       0.01738600      -0.01357800       0.03524400
H        7.46106000       9.05623000      12.60768000      -0.00905000       0.03340700       0.01312900
N        7.94714000       8.19924000      12.35278000       0.03220500       0.00856700      -0.01194300
Pd      12.65746000      11.31590000       9.65656000      -0.00599300       0.00374500       0.00825000
Pd       8.83146000      10.54695000       6.80629000       0.00069200      -0.00918700      -0.00241900
Pd       9.59248000       8.17828000       8.35131000       0.00418400       0.00274300      -0.01778900
Pd      10.11174000      12.39411000       8.48478000      -0.00365200       0.00056900       0.00929200
Pd       9.66510000       8.70219000      11.19348000      -0.00300400      -0.00320900      -0.00536000
Pd      12.22738000       9.98214000      12.04825000      -0.01011100      -0.00995700      -0.00210900
Pt      11.21517000      10.18720000       7.74466000      -0.00190400       0.01196000      -0.00442300
Pt      11.77299000       8.78897000       9.77322000       0.00189600      -0.00357900      -0.00956800
Pt      10.39015000      11.37224000      10.89766000      -0.00624400      -0.00465200       0.01146300
Pt       8.65387000      10.34711000       9.39714000       0.00525500       0.00197100      -0.01546200
11
Lattice="20.0 0.0 0.0 0.0 20.0 0.0 0.0 0.0 20.0" Properties=species:S:1:pos:R:3:forces:R:3 index=5 nearest_neighbor_distance=1.5643022956257542 nearest_neighbor_element=Pt adsorbate=H adsorbate_site=top cluster_size=10 energy=-324.51827505 cluster_energy=-320.50974609 adsorbate_energy=-1.07452648 adsorption_energy=-2.934002479999978 pbc="T T T"
H       10.07964000      12.27555000      11.61543000      -0.00720300       0.01930100       0.01581300
Pd      12.42975000      10.65673000       9.47285000      -0.00813700      -0.01336700       0.00560600
Pd       9.09302000       8.35022000      11.86743000      -0.00675300       0.00226400       0.00652600
Pd      11.51359000       9.28260000      12.75581000      -0.01940700      -0.00688800      -0.01512400
Pd       9.87844000      11.38442000       8.53269000      -0.00642000       0.00147500       0.00256400
Pd      10.84874000       9.12358000       7.77052000       0.00465600      -0.00063600      -0.01376500
Pd       8.05653000       9.54586000       7.44318000      -0.00008000      -0.00168000       0.02248000
Pt      10.35033000      10.83781000      11.06165000       0.00992700      -0.01626100      -0.01498400
Pt       8.11830000      10.09107000      10.02284000       0.01821700       0.00878700       0.00542900
Pt      11.24333000       8.49703000      10.29968000      -0.00042200       0.01298300      -0.02625800
Pt       9.00684000       7.86506000       9.21819000       0.01562100      -0.00597800       0.01171200
12
Lattice="20.0 0.0 0.0 0.0 20.0 0.0 0.0 0.0 20.0" Properties=species:S:1:pos:R:3:forces:R:3 index=6 nearest_neighbor_distance=1.656809507072252 nearest_neighbor_element=Pd adsorbate=H2 adsorbate_site=top cluster_size=10 energy=-327.58766887 cluster_energy=-320.02614291 adsorbate_energy=-6.80638155 adsorption_energy=-0.7551444100000397 pbc="T T T"
H       12.13191000      10.15706000      13.33701000       0.01962100       0.01132500       0.03221600
H       12.55465000      10.61096000      12.73072000       0.03274800      -0.02281000      -0.01536000
Pd       8.65511000       7.96322000       8.33437000       0.01368500      -0.01216600       0.01511100
Pd       7.96030000      10.17865000       6.69641000      -0.00413500       0.01773100      -0.01560400
Pd       9.39485000      12.03800000       8.18178000      -0.02761700      -0.02926100       0.00746300
Pd      11.27353000       9.86237000      11.88124000      -0.03583100      -0.01370500       0.01481800
Pd      11.75786000      11.06039000       9.35145000      -0.01483500       0.00453000       0.02190700
Pd       9.38412000      11.39134000      10.82948000       0.00585200      -0.01217900      -0.02762800
Pt      10.41588000       9.83678000       7.43659000       0.00000400      -0.00256700       0.00126300
Pt       7.67337000      10.27971000       9.28969000      -0.02112700       0.02683000      -0.02415800
Pt       8.79310000       8.81810000      11.02776000       0.03645400       0.02784800      -0.00101400
Pt      10.89480000       8.59284000       9.58573000      -0.00481700       0.00442200      -0.00901300
11
Lattice="20.0 0.0 0.0 0.0 20.0 0.0 0.0 0.0 20.0" Properties=species:S:1:pos:R:3:forces:R:3 index=7 nearest_neighbor_distance=1.8430824482371917 nearest_neighbor_element=Pt adsorbate=N adsorbate_site=hollow cluster_size=10 energy=-328.96683067 cluster_energy=-319.96219527 adsorbate_energy=-3.08886365 adsorption_energy=-5.915771749999983 pbc="T T T"
N        8.31411000      10.23817000      11.79518000      -0.00187600       0.00032800       0.01752500
Pd       9.89924000      11.30227000      11.87119000       0.00666800      -0.01191500       0.00348100
Pd       9.11713000       8.52416000      12.14354000       0.00508200      -0.01029100       0.01587500
Pd      12.07134000       9.82448000      12.45875000       0.00598700       0.00951500      -0.00739200
Pd       8.96018000       7.73826000       8.96663000      -0.00645500       0.00335400       0.00351500
Pd       8.09614000      10.11466000       7.38098000       0.00281200       0.03685300      -0.00262200
Pd       9.58958000      12.14964000       9.09085000      -0.00736400       0.01202000      -0.01608900
Pt      11.06840000       8.65939000      10.35939000      -0.00959300       0.00679200       0.01855600
Pt      11.88312000      11.08881000      10.12721000       0.00450400      -0.00352300      -0.01087900
Pt      10.49107000       9.87341000       8.21008000       0.00617300      -0.00091600      -0.00261200
Pt       8.26904000      10.03182000       9.96424000      -0.00593700      -0.04221700      -0.01935700
12
Lattice="20.0 0.0 0.0 0.0 20.0 0.0 0.0 0.0 20.0" Properties=species:S:1:pos:R:3:forces:R:3 index=8 nearest_neighbor_distance=2.5199252080666996 nearest_neighbor_element=Pd adsorbate=N2 adsorbate_site=top cluster_size=10 energy=-338.84837769 cluster_energy=-320.29850437 adsorbate_energy=-17.72816119 adsorption_energy=-0.8217121300000159 pbc="T T T"
N        9.90415000       6.50877000       7.50622000       0.00872200      -0.03568500      -0.00251600
N        9.55384000       7.47655000       7.96093000      -0.02458000       0.01492100       0.03542400
Pd       9.25519000      10.26154000      12.45297000      -0.00093800      -0.00440200       0.01303500
Pd       8.19025000      11.59953000       7.60691000       0.00091900       0.00378400      -0.01138700
Pd       9.50046000      13.53333000       8.96772000      -0.03726200       0.01454500      -0.00197100
Pd      11.87989000      11.25024000      12.47746000      -0.00051000      -0.00297200       0.00078600
Pd      10.80305000      11.31078000       7.94791000       0.00998600      -0.00456200      -0.01301400
Pd       9.01275000       9.21326000       8.68539000       0.01616800       0.00193000      -0.01528500
Pt       9.81115000      12.80695000      12.06797000      -0.01087000      -0.01705600       0.00433800
Pt       8.64453000      11.40345000      10.15710000       0.02942700       0.02371900      -0.01035500
Pt      11.57773000      12.57797000      10.22125000       0.00197200       0.02659200       0.00921500
Pt      10.86171000      10.09013000      10.34465000       0.00696600      -0.02081400      -0.00826900
14
Lattice="20.0 0.0 0.0 0.0 20.0 0.0 0.0 0.0 20.0" Properties=species:S:1:pos:R:3:forces:R:3 index=9 nearest_neighbor_distance=2.447853814885603 nearest_neighbor_element=Pd adsorbate=NH3 adsorbate_site=top cluster_size=10 energy=-341.72907357 cluster_energy=-320.10359889 adsorbate_energy=-20.15535938 adsorption_energy=-1.4701153000000247 pbc="T T T"
H        6.89961000      11.24853000       6.89618000       0.00223000       0.00101300       0.01451100
H        7.41979000      12.05141000       8.24330000      -0.00072400       0.00044800      -0.04269600
H        8.22568000      12.22819000       6.81699000      -0.01125000       0.00213400       0.02162000
N        7.72478000      11.56323000       7.40259000      -0.01518400      -0.00578500      -0.04122700
Pd      10.20445000       8.21356000      12.45029000      -0.00030700       0.01078700      -0.01712100
Pd      12.70150000       9.19855000      13.19289000       0.00856400      -0.01867100       0.02777300
Pd      13.04006000      10.76726000      10.76342000       0.01942000       0.01498300       0.00636600
Pd      11.77377000       9.41739000       8.41145000      -0.00016300      -0.00427600       0.00145700
Pd       9.90956000       7.80823000       9.57338000       0.00684500       0.00051600      -0.03322400
Pd       9.07718000      10.01380000       8.12623000      -0.00758300       0.02643000      -0.01871000
Pt      12.16415000       8.37097000      10.80203000      -0.03376200      -0.03287200      -0.00799400
Pt      10.94654000      10.90521000      12.26741000      -0.00149900       0.01511600       0.02265500
Pt       9.08233000       9.88639000      10.80161000       0.00587000       0.00885600       0.04600200
Pt      10.76736000      11.43546000       9.62167000       0.02754100      -0.01867800       0.02058800
11
Lattice="20.0 0.0 0.0 0.0 20.0 0.0 0.0 0.0 20.0" Properties=species:S:1:pos:R:3:forces:R:3 index=10 nearest_neighbor_distance=1.588628912521738 nearest_neighbor_element=Au adsorbate=H adsorbate_site=top cluster_size=10 energy=-8654.78027107 cluster_energy=-8651.57977353 adsorbate_energy=-1.07452648 adsorption_energy=-2.12597105999956 pbc="T T T"
Ag      10.58142000      12.83569000       7.49356000       0.00611500       0.00449300       0.00529100
Ag      11.10038000      10.12829000      11.33468000       0.00714100       0.01504100       0.00886600
Ag      11.98843000      10.77134000       8.79205000      -0.01456400      -0.01192900       0.00007300
Ag       8.38813000      10.80950000      11.17305000      -0.03243000      -0.02367700       0.02797300
Ag       8.02814000       9.14526000       8.97134000       0.00104500       0.00573200       0.00614700
Ag       8.18606000      11.85646000       8.61234000       0.02573100      -0.00593700       0.00020500
Au       9.88725000      10.19724000       7.18201000      -0.00039100      -0.01067700      -0.00105400
Au      10.62626000       8.33910000       9.24702000      -0.01667400      -0.01288100      -0.00270700
Au       9.12403000       8.12939000      11.45721000       0.00452100       0.01809300      -0.01546100
Au      10.32665000      12.48386000      10.19562000       0.00831700       0.02103400      -0.01528100
H        8.37059000       8.12539000      12.85580000       0.01119000       0.00070800      -0.01405100
12
Lattice="20.0 0.0 0.0 0.0 20.0 0.0 0.0 0.0 20.0" Properties=species:S:1:pos:R:3:forces:R:3 index=11 nearest_neighbor_distance=3.9229753382445574 nearest_neighbor_element=Ag adsorbate=H2 adsorbate_site=hollow cluster_size=10 energy=-8658.31276247 cluster_energy=-8651.48169191 adsorbate_energy=-6.80638155 adsorption_energy=-0.024689009999716127 pbc="T T T"
Ag       8.50320000       8.12665000      12.91096000       0.00630400      -0.01510300      -0.01191700
Ag      10.75965000      10.80528000       9.71934000      -0.01793100       0.01047500      -0.01112500
Ag       9.74405000       8.24598000      10.37322000       0.01630600       0.01746800      -0.00981300
Ag      10.48919000       9.92330000      12.35638000      -0.00698500       0.00294500      -0.00787100
Ag       8.02019000      11.66140000       9.56557000       0.01559200       0.01418200       0.00016500
Ag       8.97805000       9.49379000       8.01190000       0.00087500      -0.03336100       0.01404400
Au       7.75358000      10.54524000      12.10036000      -0.00878400      -0.00279900      -0.00123500
Au       9.66390000      12.44995000      11.65273000      -0.00636000       0.00563500      -0.01458300
Au       7.15732000       9.02961000       9.93705000      -0.01276200      -0.00330400       0.02107800
Au       9.70123000      12.01366000       7.43094000       0.02660600      -0.00473100       0.01658000
H       12.79942000       7.81629000       7.31335000      -0.02819200       0.00524400       0.01742600
H       12.26135000       7.96752000       7.80576000       0.01533100       0.00334900      -0.01274900
11
Lattice="20.0 0.0 0.0 0.0 20.0 0.0 0.0 0.0 20.0" Properties=species:S:1:pos:R:3:forces:R:3 index=12 nearest_neighbor_distance=1.9670703076911102 nearest_neighbor_element=Au adsorbate=N adsorbate_site=bridge cluster_size=10 energy=-8657.63157158 cluster_energy=-8651.57955418 adsorbate_energy=-3.08886365 adsorption_energy=-2.963153749999386 pbc="T T T"
Ag      10.46897000      10.85268000      12.16373000      -0.01993800      -0.01287000      -0.02771700
Ag       9.11234000       8.38714000      11.73530000       0.00489900       0.01347400      -0.03195800
Ag      10.53309000       7.93090000       9.42126000      -0.00772400      -0.02083800       0.00832300
Ag       7.92264000       8.66358000       9.26836000      -0.01955900       0.03549400       0.00595100
Ag       9.81621000      12.12970000       9.73120000      -0.00133400       0.01276700       0.02261600
Ag       7.45618000      11.25826000       8.48704000      -0.02540400      -0.01102800       0.00033800
Au      11.93620000      10.35783000       9.64316000      -0.01564000       0.03358600       0.01385700
Au      11.89535000       8.16800000      11.87202000       0.01931200       0.00416300       0.02746000
Au       7.90881000      10.79373000      11.15539000       0.03342300      -0.01723400      -0.00629800
Au       9.88864000      10.14410000       7.85587000       0.02370600      -0.02271000      -0.00617500
N       12.44210000      10.03877000      11.60622000       0.00826000      -0.01480500      -0.00639600
12
Lattice="20.0 0.0 0.0 0.0 20.0 0.0 0.0 0.0 20.0" Properties=species:S:1:pos:R:3:forces:R:3 index=13 nearest_neighbor_distance=2.877382224418576 nearest_neighbor_element=Ag adsorbate=N2 adsorbate_site=top cluster_size=10 energy=-8669.14758729 cluster_energy=-8651.25295887 adsorbate_energy=-17.72816119 adsorption_energy=-0.16646722999920627 pbc="T T T"
Ag       7.51648000       7.82894000      12.23988000      -0.00596500      -0.00157700      -0.00797300
Ag      10.57450000      10.24465000       9.35559000       0.00505500      -0.00455600       0.00098700
Ag       9.21772000       7.85891000      10.05204000      -0.00167200      -0.00347900       0.00457800
Ag       9.55564000       9.75298000      11.95198000       0.00463900      -0.01425200       0.01193400
Ag       6.85588000      11.31439000       8.93487000      -0.00465500      -0.00299600      -0.01279300
Ag       6.55622000       8.58245000       9.71433000      -0.00291600      -0.00175700       0.00684200
Au       6.91625000      10.49244000      11.55958000      -0.01803700      -0.01126900       0.02118400
Au       8.94368000      12.02493000      10.58831000       0.00447600       0.02695700      -0.01441600
Au       9.21528000      12.20978000       7.81441000       0.00637400      -0.00345600       0.01432800
Au       8.43918000       9.34360000       7.89731000       0.00010000      -0.00192100      -0.01011600
N       13.51357000      11.25199000       8.03215000       0.02316100       0.00890600       0.03329500
N       12.83125000      10.58125000       8.60187000      -0.01056100       0.00940100      -0.04785100
14
Lattice="20.0 0.0 0.0 0.0 20.0 0.0 0.0 0.0 20.0" Properties=species:S:1:pos:R:3:forces:R:3 index=14 nearest_neighbor_distance=2.6029897733291727 nearest_neighbor_element=Ag adsorbate=NH3 adsorbate_site=top cluster_size=10 energy=-8672.45763469 cluster_energy=-8651.6620032 adsorbate_energy=-20.15535938 adsorption_energy=-0.6402721100002324 pbc="T T T"
Ag       8.48014000       7.42962000      11.28197000       0.00209100      -0.00248900       0.00234200
Ag      12.08306000       8.91232000      10.28936000       0.00406000      -0.00617000       0.01159600
Ag      10.80843000       8.07619000      12.76571000      -0.00376800       0.01069300      -0.00935000
Ag       9.83611000       8.29339000       8.87931000      -0.00968500      -0.00794900      -0.00749600
Ag       8.47502000       9.63634000      13.04753000      -0.00009700       0.00499500      -0.00583800
Ag      10.78384000      10.85048000       8.89698000       0.01802100      -0.04128500      -0.01657000
Au       8.53388000       7.12429000      14.03221000      -0.01037200       0.01654800       0.00664700
Au      10.94153000       6.39392000      10.58627000       0.00050800       0.00401800       0.00605900
Au       8.36285000      10.01782000      10.34554000       0.01434000       0.00438400      -0.01110100
Au      10.66899000      10.65596000      11.79058000      -0.00076800      -0.00531300      -0.00729100
H       11.93259000      13.06873000       7.52577000       0.00944500       0.00955500       0.01287400
H       10.80921000      12.39150000       6.54346000      -0.01083900      -0.00300600      -0.01957500
H       10.34845000      13.46305000       7.69630000      -0.02284100       0.02510700       0.01626100
N       10.98640000      12.69582000       7.49777000       0.00990500      -0.00908900       0.02144300
11
Lattice="20.0 0.0 0.0 0.0 20.0 0.0 0.0 0.0 20.0" Properties=species:S:1:pos:R:3:forces:R:3 index=15 nearest_neighbor_distance=1.5951905733485263 nearest_neighbor_element=Au adsorbate=H adsorbate_site=top cluster_size=10 energy=-8654.76618509 cluster_energy=-8651.8644571 adsorbate_energy=-1.07452648 adsorption_energy=-1.8272015099999266 pbc="T T T"
Ag      10.77190000       9.29245000      12.37171000      -0.01883700      -0.01435000      -0.01775800
Ag      10.19297000      11.68970000      11.15823000       0.03063900      -0.01066600       0.02188500
Ag      11.92694000       9.89677000       9.95799000      -0.00236700      -0.01566900       0.02841800
Ag      10.80345000       7.38508000      10.39314000       0.02135100      -0.01178700       0.00299300
Ag       8.11917000      10.85952000       9.60539000      -0.03206600      -0.01133100       0.00077700
Ag       8.11030000       8.17210000      10.43936000       0.00037700       0.01072300       0.03640300
Au       8.16266000      10.15567000      12.30080000      -0.02313500       0.03114600      -0.02086700
Au       9.24526000       7.01725000      12.60879000       0.02360200       0.00856900      -0.01827900
Au      10.47312000      11.69551000       8.35544000       0.02110400       0.00198300      -0.03440600
Au       9.75764000       8.97608000       8.44697000      -0.00792000      -0.00728300      -0.01422700
H       11.51496000      12.22777000       7.27105000      -0.01274900       0.01866500       0.01506000
12
Lattice="20.0 0.0 0.0 0.0 20.0 0.0 0.0 0.0 20.0" Properties=species:S:1:pos:R:3:forces:R:3 index=16 nearest_neighbor_distance=3.2892607939094765 nearest_neighbor_element=Au adsorbate=H2 adsorbate_site=top cluster_size=10 energy=-8658.42950812 cluster_energy=-8651.58120567 adsorbate_energy=-6.80638155 adsorption_energy=-0.041920900000119055 pbc="T T T"
Ag      10.68875000       7.83778000      11.24296000       0.03637300       0.00186300      -0.01845700
Ag      12.40808000      10.05827000      10.94079000       0.01629000       0.01443800      -0.00423200
Ag      10.76846000       9.90161000      13.20077000      -0.01253500       0.00433000       0.01019400
Ag       8.05390000       8.54909000      10.41251000      -0.01640700       0.00523800       0.03468600
Ag      10.44694000      11.97124000      11.31027000       0.00160000      -0.01274800      -0.02700200
Ag       7.65085000      11.15792000       9.71980000      -0.01124200       0.02202300      -0.01174700
Au       8.65629000       8.07459000      13.05026000      -0.01816600      -0.02065400       0.01115100
Au      12.92078000       8.21549000      12.83861000      -0.01258700      -0.01970700       0.00540100
Au       8.29648000      10.68300000      12.26805000       0.00810200       0.00086400      -0.00869400
Au      10.16447000       9.94651000       9.45855000       0.01222000       0.01905500      -0.01203800
H       10.22667000      11.94179000       7.32206000       0.01083700      -0.00738200       0.00503400
H       10.39860000      12.40473000       6.76229000      -0.01448600      -0.00732100       0.01570100
11
Lattice="20.0 0.0 0.0 0.0 20.0 0.0 0.0 0.0 20.0" Properties=species:S:1:pos:R:3:forces:R:3 index=17 nearest_neighbor_distance=1.9889477944380547 nearest_neighbor_element=Au adsorbate=N adsorbate_site=hollow cluster_size=10 energy=-8657.55933027 cluster_energy=-8650.63383505 adsorbate_energy=-3.08886365 adsorption_energy=-3.836631570000812 pbc="T T T"
Ag       9.91557000      11.48519000       8.15401000      -0.01125000      -0.02633400       0.01599100
Ag       7.91723000       9.49621000       8.67491000      -0.02401900      -0.01721900      -0.02201500
Ag       9.19553000       7.77024000      12.62295000      -0.00747500       0.00750800      -0.02049400
Ag      12.01530000      10.11038000       9.38304000       0.02480600      -0.00388400      -0.00209600
Ag      10.05545000       8.18026000      10.04683000      -0.01654000       0.01004600       0.00113500
Ag      11.10916000       9.63950000      12.14845000      -0.01023800       0.02260300      -0.00835900
Au       7.80458000      12.13472000       9.75931000       0.01000400       0.01385600       0.02542700
Au      10.34799000       8.89011000       7.45506000       0.02328800      -0.00999300       0.00232800
Au       8.40679000       9.96557000      11.28106000      -0.00278300      -0.01007800      -0.01374700
Au      10.35465000      12.12643000      10.73432000       0.01661800       0.01656800       0.01649300
N       12.07797000      11.24368000      11.18911000      -0.00241100      -0.00307200       0.00533800
12
Lattice="20.0 0.0 0.0 0.0 20.0 0.0 0.0 0.0 20.0" Properties=species:S:1:pos:R:3:forces:R:3 index=18 nearest_neighbor_distance=2.910300598378971 nearest_neighbor_element=Ag adsorbate=N2 adsorbate_site=top cluster_size=10 energy=-8668.41030301 cluster_energy=-8650.53552037 adsorbate_energy=-17.72816119 adsorption_energy=-0.14662144999946491 pbc="T T T"
Ag       8.76279000       7.86193000      10.73902000       0.01528900       0.00440200       0.00211500
Ag      10.78978000       9.75193000      10.54390000       0.03592900      -0.00227400       0.00445600
Ag      10.53318000       7.82582000       8.57428000      -0.00869400       0.00582200       0.00336600
Ag      11.84417000      10.23171000       8.00240000       0.02542800       0.00477700      -0.00759700
Ag      10.45019000      12.09025000       6.39667000       0.01016200      -0.02028300      -0.02585700
Ag       7.94697000       8.73485000       8.22439000      -0.01014500      -0.01491000       0.00686500
Au       8.13780000      10.50409000      10.33278000      -0.00610200       0.00973500      -0.00104500